periodic system                         
   5.65000000000000     
     0.000000    0.500787    0.500787
     0.500787    0.000000    0.500787
     0.500787    0.500787    0.000000
   1   1
Direct
  0.000000  0.000000  0.000000
  0.500000  0.500000  0.500000
 
   56   56   56
 0.12785727897E+00 0.13273200206E+00 0.14691394623E+00 0.16919065941E+00 0.19788616060E+00
 0.23126426121E+00 0.26790631918E+00 0.30696017696E+00 0.34821397517E+00 0.39201532716E+00
 0.43909721163E+00 0.49036822401E+00 0.54669121088E+00 0.60864891922E+00 0.67630712839E+00
 0.74902673556E+00 0.82540534215E+00 0.90340737536E+00 0.98066929093E+00 0.10548846866E+01
 0.11241227479E+01 0.11869658336E+01 0.12425410382E+01 0.12903741246E+01 0.13301773400E+01
 0.13616800529E+01 0.13845584691E+01 0.13984683006E+01 0.14031392029E+01 0.13984683006E+01
 0.13845584691E+01 0.13616800529E+01 0.13301773400E+01 0.12903741246E+01 0.12425410382E+01
 0.11869658336E+01 0.11241227479E+01 0.10548846866E+01 0.98066929093E+00 0.90340737536E+00
 0.82540534215E+00 0.74902673556E+00 0.67630712839E+00 0.60864891922E+00 0.54669121088E+00
 0.49036822401E+00 0.43909721163E+00 0.39201532716E+00 0.34821397517E+00 0.30696017696E+00
 0.26790631918E+00 0.23126426121E+00 0.19788616060E+00 0.16919065941E+00 0.14691394623E+00
 0.13273200206E+00 0.13273200206E+00 0.14225879404E+00 0.16047597890E+00 0.18592650047E+00
 0.21689519560E+00 0.25180608146E+00 0.28953797545E+00 0.32958236154E+00 0.37203278602E+00
 0.41745129166E+00 0.46667503377E+00 0.52060350397E+00 0.57997323258E+00 0.64511981008E+00
 0.71575776378E+00 0.79084935237E+00 0.86863895059E+00 0.94687899868E+00 0.10231898494E+01
 0.10954295455E+01 0.11619156815E+01 0.12215093182E+01 0.12735560040E+01 0.13176887913E+01
 0.13536295800E+01 0.13810679989E+01 0.13996475907E+01 0.14090381686E+01 0.14090387888E+01
 0.13996492920E+01 0.13810703481E+01 0.13536320160E+01 0.13176907966E+01 0.12735572565E+01
 0.12215097612E+01 0.11619154945E+01 0.10954290438E+01 0.10231893450E+01 0.94687869022E+00
 0.86863887155E+00 0.79084939771E+00 0.71575776880E+00 0.64511964529E+00 0.57997286753E+00
 0.52060301777E+00 0.46667456970E+00 0.41745098309E+00 0.37203268977E+00 0.32958243011E+00
 0.28953808196E+00 0.25180608171E+00 0.21689500010E+00 0.18592612074E+00 0.16047552461E+00
 0.14225842653E+00 0.13273186113E+00 0.14691394623E+00 0.16047597890E+00 0.18183903345E+00
 0.20948108408E+00 0.24183587884E+00 0.27763816018E+00 0.31614731848E+00 0.35720970904E+00
 0.40118119034E+00 0.44876621952E+00 0.50082312559E+00 0.55815357268E+00 0.62127417895E+00
 0.69018442956E+00 0.76418601447E+00 0.84183385009E+00 0.92107337590E+00 0.99954560338E+00
 0.10749631598E+01 0.11454111004E+01 0.12094752887E+01 0.12662672787E+01 0.13152745819E+01
 0.13561549630E+01 0.13885769093E+01 0.14121592442E+01 0.14265116477E+01 0.14313342224E+01
 0.14265137630E+01 0.14121629162E+01 0.13885812079E+01 0.13561588874E+01 0.13152773677E+01
 0.12662686001E+01 0.12094752968E+01 0.11454102921E+01 0.10749621423E+01 0.99954485544E+00
 0.92107309475E+00 0.84183393568E+00 0.76418617901E+00 0.69018437109E+00 0.62127373764E+00
 0.55815280173E+00 0.50082225306E+00 0.44876552662E+00 0.40118087003E+00 0.35720977186E+00
 0.31614758956E+00 0.27763836654E+00 0.24183578320E+00 0.20948060237E+00 0.18183827954E+00
 0.16047521638E+00 0.14691346950E+00 0.14225842653E+00 0.16919065941E+00 0.18592650047E+00
 0.20948108408E+00 0.23845512429E+00 0.27158675537E+00 0.30801068624E+00 0.34738085398E+00
 0.38985306804E+00 0.43596863237E+00 0.48648860152E+00 0.54220518631E+00 0.60373132594E+00
 0.67127236506E+00 0.74441829748E+00 0.82203062627E+00 0.90229465174E+00 0.98295263274E+00
 0.10616533012E+01 0.11362941526E+01 0.12052104882E+01 0.12672520754E+01 0.13217071817E+01
 0.13681118831E+01 0.14060688162E+01 0.14351464632E+01 0.14548832559E+01 0.14648727295E+01
 0.14648740393E+01 0.14548868212E+01 0.14351513235E+01 0.14060737298E+01 0.13681157356E+01
 0.13217093192E+01 0.12672524537E+01 0.12052095972E+01 0.11362927570E+01 0.10616521215E+01
 0.98295208345E+00 0.90229474074E+00 0.82203103172E+00 0.74441857497E+00 0.67127217964E+00
 0.60373060836E+00 0.54220414850E+00 0.48648761804E+00 0.43596804975E+00 0.38985303656E+00
 0.34738125834E+00 0.30801120594E+00 0.27158702144E+00 0.23845489822E+00 0.20948037341E+00
 0.18592555788E+00 0.16918986659E+00 0.16047521638E+00 0.16047552461E+00 0.19788616060E+00
 0.21689519560E+00 0.24183587884E+00 0.27158675537E+00 0.30528299800E+00 0.34247616301E+00
 0.38316864933E+00 0.42774519193E+00 0.47684371806E+00 0.53119543122E+00 0.59143920606E+00
 0.65790901180E+00 0.73041848972E+00 0.80810524816E+00 0.88941100082E+00 0.97223807760E+00
 0.10542503395E+01 0.11332192416E+01 0.12072711544E+01 0.12749964655E+01 0.13354498132E+01
 0.13879952906E+01 0.14321214063E+01 0.14673110988E+01 0.14930103654E+01 0.15086914440E+01
 0.15139669722E+01 0.15086937862E+01 0.14930143634E+01 0.14673156195E+01 0.14321252632E+01
 0.13879976320E+01 0.13354503729E+01 0.12749955801E+01 0.12072695654E+01 0.11332177688E+01
 0.10542495607E+01 0.97223814411E+00 0.88941164518E+00 0.80810596535E+00 0.73041879806E+00
 0.65790867619E+00 0.59143832901E+00 0.53119438248E+00 0.47684294431E+00 0.42774500149E+00
 0.38316907047E+00 0.34247693873E+00 0.30528371504E+00 0.27158704136E+00 0.24183557836E+00
 0.21689443914E+00 0.19788529916E+00 0.18592555788E+00 0.18183827954E+00 0.18592612074E+00
 0.23126426121E+00 0.25180608146E+00 0.27763816018E+00 0.30801068624E+00 0.34247616301E+00
 0.38095858746E+00 0.42372680153E+00 0.47130306460E+00 0.52433520479E+00 0.58344026904E+00
 0.64901614692E+00 0.72103413636E+00 0.79886161440E+00 0.88118810026E+00 0.96611050916E+00
 0.10513738145E+01 0.11346937427E+01 0.12140388701E+01 0.12877693911E+01 0.13546947220E+01
 0.14139706828E+01 0.14649268046E+01 0.15069207052E+01 0.15392770326E+01 0.15613254551E+01
 0.15725094447E+01 0.15725102898E+01 0.15613277078E+01 0.15392799453E+01 0.15069233505E+01
 0.14649284099E+01 0.14139708991E+01 0.13546937199E+01 0.12877677540E+01 0.12140373375E+01
 0.11346929094E+01 0.10513739153E+01 0.96611136186E+00 0.88118922704E+00 0.79886247271E+00
 0.72103436051E+00 0.64901569385E+00 0.58343941421E+00 0.52433439752E+00 0.47130271528E+00
 0.42372709828E+00 0.38095942139E+00 0.34247719128E+00 0.30801149840E+00 0.27763846699E+00
 0.25180584083E+00 0.23126368433E+00 0.21689443914E+00 0.20948037341E+00 0.20948060237E+00
 0.21689500010E+00 0.26790631918E+00 0.28953797545E+00 0.31614731848E+00 0.34738085398E+00
 0.38316864933E+00 0.42372680153E+00 0.46949805722E+00 0.52105434399E+00 0.57897024341E+00
 0.64366323369E+00 0.71520549541E+00 0.79314318846E+00 0.87638824333E+00 0.96324477942E+00
 0.10515875831E+01 0.11391448131E+01 0.12237853042E+01 0.13036866889E+01 0.13774249259E+01
 0.14439298422E+01 0.15023370227E+01 0.15518402405E+01 0.15916098723E+01 0.16208069049E+01
 0.16386802271E+01 0.16447018071E+01 0.16386807667E+01 0.16208077005E+01 0.15916104834E+01
 0.15518402609E+01 0.15023362713E+01 0.14439284516E+01 0.13774233048E+01 0.13036853641E+01
 0.12237847140E+01 0.11391451365E+01 0.10515886710E+01 0.96324622094E+00 0.87638953337E+00
 0.79314392858E+00 0.71520554306E+00 0.64366274156E+00 0.57896957616E+00 0.52105391439E+00
 0.46949815110E+00 0.42372746819E+00 0.38316969830E+00 0.34738195333E+00 0.31614814792E+00
 0.28953836101E+00 0.26790629243E+00 0.25180584083E+00 0.24183557836E+00 0.23845489822E+00
 0.24183578320E+00 0.25180608171E+00 0.30696017696E+00 0.32958236154E+00 0.35720970904E+00
 0.38985306804E+00 0.42774519193E+00 0.47130306460E+00 0.52105434399E+00 0.57753685609E+00
 0.64116735557E+00 0.71207887907E+00 0.78995067479E+00 0.87388445414E+00 0.96238808586E+00
 0.10534976159E+01 0.11450120249E+01 0.12347631410E+01 0.13208024477E+01 0.14015055273E+01
 0.14755790332E+01 0.15419446055E+01 0.15996008011E+01 0.16475315227E+01 0.16847009090E+01
 0.17101366511E+01 0.17230685628E+01 0.17230682525E+01 0.17101357320E+01 0.16846994359E+01
 0.16475296177E+01 0.15995986808E+01 0.15419425726E+01 0.14755774280E+01 0.14015046464E+01
 0.13208024541E+01 0.12347640011E+01 0.11450134996E+01 0.10534993243E+01 0.96238961423E+00
 0.87388548334E+00 0.78995107319E+00 0.71207873281E+00 0.64116692283E+00 0.57753646467E+00
 0.52105427163E+00 0.47130344655E+00 0.42774598877E+00 0.38985410180E+00 0.35721074481E+00
 0.32958320210E+00 0.30696072736E+00 0.28953836101E+00 0.27763846699E+00 0.27158704136E+00
 0.27158702144E+00 0.27763836654E+00 0.28953808196E+00 0.34821397517E+00 0.37203278602E+00
 0.40118119034E+00 0.43596863237E+00 0.47684371806E+00 0.52433520479E+00 0.57897024341E+00
 0.64116735557E+00 0.71110059629E+00 0.78854910768E+00 0.87277337148E+00 0.96247292953E+00
 0.10558625700E+01 0.11508584519E+01 0.12453167469E+01 0.13372233030E+01 0.14248021633E+01
 0.15065594424E+01 0.15812008235E+01 0.16475105742E+01 0.17042598051E+01 0.17501893148E+01
 0.17840799715E+01 0.18048894572E+01 0.18119092728E+01 0.18048878864E+01 0.17840771678E+01
 0.17501858656E+01 0.17042564099E+01 0.16475078718E+01 0.15811992569E+01 0.15065591745E+01
 0.14248030717E+01 0.13372250417E+01 0.12453188568E+01 0.11508604843E+01 0.10558641853E+01
 0.96247395546E+00 0.87277380820E+00 0.78854909264E+00 0.71110034173E+00 0.64116708390E+00
 0.57897013329E+00 0.52433536298E+00 0.47684417224E+00 0.43596934313E+00 0.40118207392E+00
 0.37203373637E+00 0.34821488449E+00 0.32958320210E+00 0.31614814792E+00 0.30801149840E+00
 0.30528371504E+00 0.30801120594E+00 0.31614758956E+00 0.32958243011E+00 0.39201532716E+00
 0.41745129166E+00 0.44876621952E+00 0.48648860152E+00 0.53119543122E+00 0.58344026904E+00
 0.64366323369E+00 0.71207887907E+00 0.78854910768E+00 0.87247043707E+00 0.96272069496E+00
 0.10577020612E+01 0.11554831869E+01 0.12540001780E+01 0.13512342336E+01 0.14453161071E+01
 0.15345907496E+01 0.16175643671E+01 0.16928036562E+01 0.17588513017E+01 0.18142042337E+01
 0.18573747089E+01 0.18870230764E+01 0.19021251448E+01 0.19021240637E+01 0.18870201304E+01
 0.18573706953E+01 0.18142002088E+01 0.17588482638E+01 0.16928022719E+01 0.16175648117E+01
 0.15345927125E+01 0.14453189446E+01 0.13512372022E+01 0.12540026620E+01 0.11554848444E+01
 0.10577028592E+01 0.96272083574E+00 0.87247022758E+00 0.78854882884E+00 0.71207870554E+00
 0.64366322325E+00 0.58344040528E+00 0.53119568664E+00 0.48648898175E+00 0.44876676502E+00
 0.41745204294E+00 0.39201627360E+00 0.37203373637E+00 0.35721074481E+00 0.34738195333E+00
 0.34247719128E+00 0.34247693873E+00 0.34738125834E+00 0.35720977186E+00 0.37203268977E+00
 0.43909721163E+00 0.46667503377E+00 0.50082312559E+00 0.54220518631E+00 0.59143920606E+00
 0.64901614692E+00 0.71520549541E+00 0.78995067479E+00 0.87277337148E+00 0.96272069496E+00
 0.10583874269E+01 0.11580217900E+01 0.12596880281E+01 0.13614212191E+01 0.14613208802E+01
 0.15576223644E+01 0.16486654918E+01 0.17328131303E+01 0.18083780820E+01 0.18736029644E+01
 0.19267167604E+01 0.19660641200E+01 0.19902784890E+01 0.19984548825E+01 0.19902764404E+01
 0.19660607010E+01 0.19267130997E+01 0.18736002547E+01 0.18083771967E+01 0.17328143530E+01
 0.16486684706E+01 0.15576262774E+01 0.14613247440E+01 0.13614242165E+01 0.12596897392E+01
 0.11580222568E+01 0.10583870433E+01 0.96271999549E+00 0.87277280819E+00 0.78995047777E+00
 0.71520565188E+00 0.64901649332E+00 0.59143956586E+00 0.54220548608E+00 0.50082343178E+00
 0.46667549972E+00 0.43909797002E+00 0.41745204294E+00 0.40118207392E+00 0.38985410180E+00
 0.38316969830E+00 0.38095942139E+00 0.38316907047E+00 0.38985303656E+00 0.40118087003E+00
 0.41745098309E+00 0.49036822401E+00 0.52060350397E+00 0.55815357268E+00 0.60373132594E+00
 0.65790901180E+00 0.72103413636E+00 0.79314318846E+00 0.87388445414E+00 0.96247292953E+00
 0.10577020612E+01 0.11580217900E+01 0.12616656541E+01 0.13667767336E+01 0.14714850627E+01
 0.15739752741E+01 0.16724670057E+01 0.17651490786E+01 0.18501186851E+01 0.19253668724E+01
 0.19888349764E+01 0.20385425853E+01 0.20727643527E+01 0.20902173909E+01 0.20902166057E+01
 0.20727623357E+01 0.20385402231E+01 0.19888333673E+01 0.19253669178E+01 0.18501207515E+01
 0.17651528736E+01 0.16724716903E+01 0.15739797679E+01 0.14714884218E+01 0.13667784504E+01
 0.12616657770E+01 0.11580208290E+01 0.10577007441E+01 0.96247191019E+00 0.87388409588E+00
 0.79314349730E+00 0.72103484978E+00 0.65790978613E+00 0.60373192551E+00 0.55815397261E+00
 0.52060387218E+00 0.49036879804E+00 0.46667549972E+00 0.44876676502E+00 0.43596934313E+00
 0.42774598877E+00 0.42372746819E+00 0.42372709828E+00 0.42774500149E+00 0.43596804975E+00
 0.44876552662E+00 0.46667456970E+00 0.54669121088E+00 0.57997323258E+00 0.62127417895E+00
 0.67127236506E+00 0.73041848972E+00 0.79886161440E+00 0.87638824333E+00 0.96238808586E+00
 0.10558625700E+01 0.11554831869E+01 0.12596880281E+01 0.13667767336E+01 0.14749687801E+01
 0.15824599327E+01 0.16874048915E+01 0.17878617270E+01 0.18817416895E+01 0.19668017449E+01
 0.20407039144E+01 0.21011443560E+01 0.21460336994E+01 0.21736950543E+01 0.21830408974E+01
 0.21736945204E+01 0.21460330961E+01 0.21011444055E+01 0.20407052802E+01 0.19668047154E+01
 0.18817460199E+01 0.17878666765E+01 0.16874094674E+01 0.15824632315E+01 0.14749702931E+01
 0.13667765006E+01 0.12596865884E+01 0.11554813575E+01 0.10558611369E+01 0.96238754598E+00
 0.87638867907E+00 0.79886274914E+00 0.73041987093E+00 0.67127359184E+00 0.62127506954E+00
 0.57997386473E+00 0.54669183064E+00 0.52060387218E+00 0.50082343178E+00 0.48648898175E+00
 0.47684417224E+00 0.47130344655E+00 0.46949815110E+00 0.47130271528E+00 0.47684294431E+00
 0.48648761804E+00 0.50082225306E+00 0.52060301777E+00 0.60864891922E+00 0.64511981008E+00
 0.69018442956E+00 0.74441829748E+00 0.80810524816E+00 0.88118810026E+00 0.96324477942E+00
 0.10534976159E+01 0.11508584519E+01 0.12540001780E+01 0.13614212191E+01 0.14714850627E+01
 0.15824599327E+01 0.16924959551E+01 0.17995740592E+01 0.19014629563E+01 0.19957178851E+01
 0.20797439439E+01 0.21509280247E+01 0.22068233818E+01 0.22453563776E+01 0.22650196860E+01
 0.22650199582E+01 0.22453572883E+01 0.22068251544E+01 0.21509308540E+01 0.20797478144E+01
 0.19957224682E+01 0.19014676229E+01 0.17995780421E+01 0.16924985849E+01 0.15824608633E+01
 0.14714844006E+01 0.13614194963E+01 0.12539981762E+01 0.11508569428E+01 0.10534971222E+01
 0.96324543756E+00 0.88118967380E+00 0.80810727256E+00 0.74442029150E+00 0.69018607795E+00
 0.64512105371E+00 0.60864991664E+00 0.57997386473E+00 0.55815397261E+00 0.54220548608E+00
 0.53119568664E+00 0.52433536298E+00 0.52105427163E+00 0.52105391439E+00 0.52433439752E+00
 0.53119438248E+00 0.54220414850E+00 0.55815280173E+00 0.57997286753E+00 0.67630712839E+00
 0.71575776378E+00 0.76418601447E+00 0.82203062627E+00 0.88941100082E+00 0.96611050916E+00
 0.10515875831E+01 0.11450120249E+01 0.12453167469E+01 0.13512342336E+01 0.14613208802E+01
 0.15739752741E+01 0.16874048915E+01 0.17995740592E+01 0.19081637178E+01 0.20105736822E+01
 0.21039890099E+01 0.21855150542E+01 0.22523668037E+01 0.23020838307E+01 0.23327368834E+01
 0.23430959225E+01 0.23327384581E+01 0.23020868092E+01 0.22523708478E+01 0.21855196714E+01
 0.21039936081E+01 0.20105776468E+01 0.19081665379E+01 0.17995754374E+01 0.16874048299E+01
 0.15739740905E+01 0.14613191345E+01 0.13512325853E+01 0.12453157831E+01 0.11450121127E+01
 0.10515887866E+01 0.96611261337E+00 0.88941360690E+00 0.82203330092E+00 0.76418842867E+00
 0.71575977070E+00 0.67630876317E+00 0.64512105371E+00 0.62127506954E+00 0.60373192551E+00
 0.59143956586E+00 0.58344040528E+00 0.57897013329E+00 0.57753646467E+00 0.57896957616E+00
 0.58343941421E+00 0.59143832901E+00 0.60373060836E+00 0.62127373764E+00 0.64511964529E+00
 0.74902673556E+00 0.79084935237E+00 0.84183385009E+00 0.90229465174E+00 0.97223807760E+00
 0.10513738145E+01 0.11391448131E+01 0.12347631410E+01 0.13372233030E+01 0.14453161071E+01
 0.15576223644E+01 0.16724670057E+01 0.17878617270E+01 0.19014629563E+01 0.20105736822E+01
 0.21122100042E+01 0.22032376958E+01 0.22805657414E+01 0.23413692379E+01 0.23833082168E+01
 0.24047126904E+01 0.24047138604E+01 0.23833114654E+01 0.23413738496E+01 0.22805707402E+01
 0.22032421037E+01 0.21122130771E+01 0.20105750833E+01 0.19014627875E+01 0.17878604611E+01
 0.16724653196E+01 0.15576209429E+01 0.14453154745E+01 0.13372237275E+01 0.12347646253E+01
 0.11391471614E+01 0.10513767130E+01 0.97224120183E+00 0.90229774502E+00 0.84183674106E+00
 0.79085196104E+00 0.74902903826E+00 0.71575977070E+00 0.69018607795E+00 0.67127359184E+00
 0.65790978613E+00 0.64901649332E+00 0.64366322325E+00 0.64116708390E+00 0.64116692283E+00
 0.64366274156E+00 0.64901569385E+00 0.65790867619E+00 0.67127217964E+00 0.69018437109E+00
 0.71575776880E+00 0.82540534215E+00 0.86863895059E+00 0.92107337590E+00 0.98295263274E+00
 0.10542503395E+01 0.11346937427E+01 0.12237853042E+01 0.13208024477E+01 0.14248021633E+01
 0.15345907496E+01 0.16486654918E+01 0.17651490786E+01 0.18817416895E+01 0.19957178851E+01
 0.21039890099E+01 0.22032376958E+01 0.22901132284E+01 0.23614613132E+01 0.24145546553E+01
 0.24472938199E+01 0.24583579595E+01 0.24472963571E+01 0.24145589658E+01 0.23614661326E+01
 0.22901172239E+01 0.22032399015E+01 0.21039891319E+01 0.19957163416E+01 0.18817394294E+01
 0.17651472151E+01 0.16486649229E+01 0.15345919059E+01 0.14248049415E+01 0.13208063295E+01
 0.12237895921E+01 0.11346978522E+01 0.10542539678E+01 0.98295575571E+00 0.92107617982E+00
 0.86864164069E+00 0.82540801023E+00 0.79085196104E+00 0.76418842867E+00 0.74442029150E+00
 0.73041987093E+00 0.72103484978E+00 0.71520565188E+00 0.71207870554E+00 0.71110034173E+00
 0.71207873281E+00 0.71520554306E+00 0.72103436051E+00 0.73041879806E+00 0.74441857497E+00
 0.76418617901E+00 0.79084939771E+00 0.90340737536E+00 0.94687899868E+00 0.99954560338E+00
 0.10616533012E+01 0.11332192416E+01 0.12140388701E+01 0.13036866889E+01 0.14015055273E+01
 0.15065594424E+01 0.16175643671E+01 0.17328131303E+01 0.18501186851E+01 0.19668017449E+01
 0.20797439439E+01 0.21855150542E+01 0.22805657414E+01 0.23614613132E+01 0.24251229606E+01
 0.24690442706E+01 0.24914606370E+01 0.24914618674E+01 0.24690474920E+01 0.24251269555E+01
 0.23614646065E+01 0.22805671941E+01 0.21855143293E+01 0.20797416367E+01 0.19667991707E+01
 0.18501173606E+01 0.17328142120E+01 0.16175682349E+01 0.15065655871E+01 0.14015127952E+01
 0.13036937486E+01 0.12140446741E+01 0.11332233504E+01 0.10616559700E+01 0.99954750351E+00
 0.94688087930E+00 0.90340970203E+00 0.86864164069E+00 0.84183674106E+00 0.82203330092E+00
 0.80810727256E+00 0.79886274914E+00 0.79314349730E+00 0.78995047777E+00 0.78854882884E+00
 0.78854909264E+00 0.78995107319E+00 0.79314392858E+00 0.79886247271E+00 0.80810596535E+00
 0.82203103172E+00 0.84183393568E+00 0.86863887155E+00 0.98066929093E+00 0.10231898494E+01
 0.10749631598E+01 0.11362941526E+01 0.12072711544E+01 0.12877693911E+01 0.13774249259E+01
 0.14755790332E+01 0.15812008235E+01 0.16928036562E+01 0.18083780820E+01 0.19253668724E+01
 0.20407039144E+01 0.21509280247E+01 0.22523668037E+01 0.23413692379E+01 0.24145546553E+01
 0.24690442706E+01 0.25026497793E+01 0.25140066933E+01 0.25026515251E+01 0.24690469146E+01
 0.24145569067E+01 0.23413699922E+01 0.22523657239E+01 0.21509257884E+01 0.20407020437E+01
 0.19253671467E+01 0.18083818443E+01 0.16928112278E+01 0.15812113061E+01 0.14755905929E+01
 0.13774354496E+01 0.12877772267E+01 0.12072756224E+01 0.11362956819E+01 0.10749630538E+01
 0.10231896313E+01 0.98067010171E+00 0.94688087930E+00 0.92107617982E+00 0.90229774502E+00
 0.88941360690E+00 0.88118967380E+00 0.87638867907E+00 0.87388409588E+00 0.87277280819E+00
 0.87247022758E+00 0.87277380820E+00 0.87388548334E+00 0.87638953337E+00 0.88118922704E+00
 0.88941164518E+00 0.90229474074E+00 0.92107309475E+00 0.94687869022E+00 0.10548846866E+01
 0.10954295455E+01 0.11454111004E+01 0.12052104882E+01 0.12749964655E+01 0.13546947220E+01
 0.14439298422E+01 0.15419446055E+01 0.16475105742E+01 0.17588513017E+01 0.18736029644E+01
 0.19888349764E+01 0.21011443560E+01 0.22068233818E+01 0.23020838307E+01 0.23833082168E+01
 0.24472938199E+01 0.24914606370E+01 0.25140066933E+01 0.25140071769E+01 0.24914617477E+01
 0.24472947401E+01 0.23833081757E+01 0.23020826788E+01 0.22068219094E+01 0.21011441850E+01
 0.19888379833E+01 0.18736105202E+01 0.17588635637E+01 0.16475262174E+01 0.15419611186E+01
 0.14439442697E+01 0.13547046508E+01 0.12750008569E+01 0.12052099500E+01 0.11454075536E+01
 0.10954255193E+01 0.10548823027E+01 0.10231896313E+01 0.99954750351E+00 0.98295575571E+00
 0.97224120183E+00 0.96611261337E+00 0.96324543756E+00 0.96238754598E+00 0.96247191019E+00
 0.96271999549E+00 0.96272083574E+00 0.96247395546E+00 0.96238961423E+00 0.96324622094E+00
 0.96611136186E+00 0.97223814411E+00 0.98295208345E+00 0.99954485544E+00 0.10231893450E+01
 0.11241227479E+01 0.11619156815E+01 0.12094752887E+01 0.12672520754E+01 0.13354498132E+01
 0.14139706828E+01 0.15023370227E+01 0.15996008011E+01 0.17042598051E+01 0.18142042337E+01
 0.19267167604E+01 0.20385425853E+01 0.21460336994E+01 0.22453563776E+01 0.23327368834E+01
 0.24047126904E+01 0.24583579595E+01 0.24914618674E+01 0.25026515251E+01 0.24914617477E+01
 0.24583574704E+01 0.24047116405E+01 0.23327355770E+01 0.22453558824E+01 0.21460357599E+01
 0.20385490790E+01 0.19267289353E+01 0.18142219367E+01 0.17042811854E+01 0.15996226012E+01
 0.15023554163E+01 0.14139824492E+01 0.13354534273E+01 0.12672482317E+01 0.12094665940E+01
 0.11619057366E+01 0.11241149843E+01 0.10954255193E+01 0.10749630538E+01 0.10616559700E+01
 0.10542539678E+01 0.10513767130E+01 0.10515887866E+01 0.10534971222E+01 0.10558611369E+01
 0.10577007441E+01 0.10583870433E+01 0.10577028592E+01 0.10558641853E+01 0.10534993243E+01
 0.10515886710E+01 0.10513739153E+01 0.10542495607E+01 0.10616521215E+01 0.10749621423E+01
 0.10954290438E+01 0.11869658336E+01 0.12215093182E+01 0.12662672787E+01 0.13217071817E+01
 0.13879952906E+01 0.14649268046E+01 0.15518402405E+01 0.16475315227E+01 0.17501893148E+01
 0.18573747089E+01 0.19660641200E+01 0.20727643527E+01 0.21736950543E+01 0.22650196860E+01
 0.23430959225E+01 0.24047138604E+01 0.24472963571E+01 0.24690474920E+01 0.24690469146E+01
 0.24472947401E+01 0.24047116405E+01 0.23430940651E+01 0.22650197736E+01 0.21736991187E+01
 0.20727743172E+01 0.19660810495E+01 0.18573980321E+01 0.17502165469E+01 0.16475585610E+01
 0.15518623166E+01 0.14649398608E+01 0.13879972419E+01 0.13216986538E+01 0.12662515187E+01
 0.12214911370E+01 0.11869501155E+01 0.11619057366E+01 0.11454075536E+01 0.11362956819E+01
 0.11332233504E+01 0.11346978522E+01 0.11391471614E+01 0.11450121127E+01 0.11508569428E+01
 0.11554813575E+01 0.11580208290E+01 0.11580222568E+01 0.11554848444E+01 0.11508604843E+01
 0.11450134996E+01 0.11391451365E+01 0.11346929094E+01 0.11332177688E+01 0.11362927570E+01
 0.11454102921E+01 0.11619154945E+01 0.12425410382E+01 0.12735560040E+01 0.13152745819E+01
 0.13681118831E+01 0.14321214063E+01 0.15069207052E+01 0.15916098723E+01 0.16847009090E+01
 0.17840799715E+01 0.18870230764E+01 0.19902784890E+01 0.20902173909E+01 0.21830408974E+01
 0.22650199582E+01 0.23327384581E+01 0.23833114654E+01 0.24145589658E+01 0.24251269555E+01
 0.24145569067E+01 0.23833081757E+01 0.23327355770E+01 0.22650197736E+01 0.21830459662E+01
 0.20902298747E+01 0.19902993591E+01 0.18870513549E+01 0.17841124911E+01 0.16847326552E+01
 0.15916350595E+01 0.15069343572E+01 0.14321207808E+01 0.13680974278E+01 0.13152500358E+01
 0.12735274029E+01 0.12425148594E+01 0.12214911370E+01 0.12094665940E+01 0.12052099500E+01
 0.12072756224E+01 0.12140446741E+01 0.12237895921E+01 0.12347646253E+01 0.12453157831E+01
 0.12539981762E+01 0.12596865884E+01 0.12616657770E+01 0.12596897392E+01 0.12540026620E+01
 0.12453188568E+01 0.12347640011E+01 0.12237847140E+01 0.12140373375E+01 0.12072695654E+01
 0.12052095972E+01 0.12094752968E+01 0.12215097612E+01 0.12903741246E+01 0.13176887913E+01
 0.13561549630E+01 0.14060688162E+01 0.14673110988E+01 0.15392770326E+01 0.16208069049E+01
 0.17101366511E+01 0.18048894572E+01 0.19021251448E+01 0.19984548825E+01 0.20902166057E+01
 0.21736945204E+01 0.22453572883E+01 0.23020868092E+01 0.23413738496E+01 0.23614661326E+01
 0.23614646065E+01 0.23413699922E+01 0.23020826788E+01 0.22453558824E+01 0.21736991187E+01
 0.20902298747E+01 0.19984779514E+01 0.19021567992E+01 0.18049259358E+01 0.17101720432E+01
 0.16208343808E+01 0.15392906013E+01 0.14673072322E+01 0.14060476523E+01 0.13561205686E+01
 0.13176482227E+01 0.12903354691E+01 0.12735274029E+01 0.12662515187E+01 0.12672482317E+01
 0.12750008569E+01 0.12877772267E+01 0.13036937486E+01 0.13208063295E+01 0.13372237275E+01
 0.13512325853E+01 0.13614194963E+01 0.13667765006E+01 0.13667784504E+01 0.13614242165E+01
 0.13512372022E+01 0.13372250417E+01 0.13208024541E+01 0.13036853641E+01 0.12877677540E+01
 0.12749955801E+01 0.12672524537E+01 0.12662686001E+01 0.12735572565E+01 0.13301773400E+01
 0.13536295800E+01 0.13885769093E+01 0.14351464632E+01 0.14930103654E+01 0.15613254551E+01
 0.16386802271E+01 0.17230685628E+01 0.18119092728E+01 0.19021240637E+01 0.19902764404E+01
 0.20727623357E+01 0.21460330961E+01 0.22068251544E+01 0.22523708478E+01 0.22805707402E+01
 0.22901172239E+01 0.22805671941E+01 0.22523657239E+01 0.22068219094E+01 0.21460357599E+01
 0.20727743172E+01 0.19902993591E+01 0.19021567992E+01 0.18119477177E+01 0.17231060722E+01
 0.16387089853E+01 0.15613384135E+01 0.14930030793E+01 0.14351185862E+01 0.13885325932E+01
 0.13535766148E+01 0.13301252240E+01 0.13176482227E+01 0.13152500358E+01 0.13216986538E+01
 0.13354534273E+01 0.13547046508E+01 0.13774354496E+01 0.14015127952E+01 0.14248049415E+01
 0.14453154745E+01 0.14613191345E+01 0.14714844006E+01 0.14749702931E+01 0.14714884218E+01
 0.14613247440E+01 0.14453189446E+01 0.14248030717E+01 0.14015046464E+01 0.13774233048E+01
 0.13546937199E+01 0.13354503729E+01 0.13217093192E+01 0.13152773677E+01 0.13176907966E+01
 0.13616800529E+01 0.13810679989E+01 0.14121592442E+01 0.14548832559E+01 0.15086914440E+01
 0.15725094447E+01 0.16447018071E+01 0.17230682525E+01 0.18048878864E+01 0.18870201304E+01
 0.19660607010E+01 0.20385402231E+01 0.21011444055E+01 0.21509308540E+01 0.21855196714E+01
 0.22032421037E+01 0.22032399015E+01 0.21855143293E+01 0.21509257884E+01 0.21011441850E+01
 0.20385490790E+01 0.19660810495E+01 0.18870513549E+01 0.18049259358E+01 0.17231060722E+01
 0.16447307835E+01 0.15725215209E+01 0.15086811741E+01 0.14548496035E+01 0.14121061466E+01
 0.13810036375E+01 0.13616150066E+01 0.13535766148E+01 0.13561205686E+01 0.13680974278E+01
 0.13879972419E+01 0.14139824492E+01 0.14439442697E+01 0.14755905929E+01 0.15065655871E+01
 0.15345919059E+01 0.15576209429E+01 0.15739740905E+01 0.15824608633E+01 0.15824632315E+01
 0.15739797679E+01 0.15576262774E+01 0.15345927125E+01 0.15065591745E+01 0.14755774280E+01
 0.14439284516E+01 0.14139708991E+01 0.13879976320E+01 0.13681157356E+01 0.13561588874E+01
 0.13536320160E+01 0.13845584691E+01 0.13996475907E+01 0.14265116477E+01 0.14648727295E+01
 0.15139669722E+01 0.15725102898E+01 0.16386807667E+01 0.17101357320E+01 0.17840771678E+01
 0.18573706953E+01 0.19267130997E+01 0.19888333673E+01 0.20407052802E+01 0.20797478144E+01
 0.21039936081E+01 0.21122130771E+01 0.21039891319E+01 0.20797416367E+01 0.20407020437E+01
 0.19888379833E+01 0.19267289353E+01 0.18573980321E+01 0.17841124911E+01 0.17101720432E+01
 0.16387089853E+01 0.15725215209E+01 0.15139547668E+01 0.14648351692E+01 0.14264521389E+01
 0.13995743208E+01 0.13844826820E+01 0.13810036375E+01 0.13885325932E+01 0.14060476523E+01
 0.14321207808E+01 0.14649398608E+01 0.15023554163E+01 0.15419611186E+01 0.15812113061E+01
 0.16175682349E+01 0.16486649229E+01 0.16724653196E+01 0.16874048299E+01 0.16924985849E+01
 0.16874094674E+01 0.16724716903E+01 0.16486684706E+01 0.16175648117E+01 0.15811992569E+01
 0.15419425726E+01 0.15023362713E+01 0.14649284099E+01 0.14321252632E+01 0.14060737298E+01
 0.13885812079E+01 0.13810703481E+01 0.13984683006E+01 0.14090381686E+01 0.14313342224E+01
 0.14648740393E+01 0.15086937862E+01 0.15613277078E+01 0.16208077005E+01 0.16846994359E+01
 0.17501858656E+01 0.18142002088E+01 0.18736002547E+01 0.19253669178E+01 0.19668047154E+01
 0.19957224682E+01 0.20105776468E+01 0.20105750833E+01 0.19957163416E+01 0.19667991707E+01
 0.19253671467E+01 0.18736105202E+01 0.18142219367E+01 0.17502165469E+01 0.16847326552E+01
 0.16208343808E+01 0.15613384135E+01 0.15086811741E+01 0.14648351692E+01 0.14312716829E+01
 0.14089597384E+01 0.13983854114E+01 0.13995743208E+01 0.14121061466E+01 0.14351185862E+01
 0.14673072322E+01 0.15069343572E+01 0.15518623166E+01 0.15996226012E+01 0.16475262174E+01
 0.16928112278E+01 0.17328142120E+01 0.17651472151E+01 0.17878604611E+01 0.17995754374E+01
 0.17995780421E+01 0.17878666765E+01 0.17651528736E+01 0.17328143530E+01 0.16928022719E+01
 0.16475078718E+01 0.15995986808E+01 0.15518402609E+01 0.15069233505E+01 0.14673156195E+01
 0.14351513235E+01 0.14121629162E+01 0.13996492920E+01 0.14031392029E+01 0.14090387888E+01
 0.14265137630E+01 0.14548868212E+01 0.14930143634E+01 0.15392799453E+01 0.15916104834E+01
 0.16475296177E+01 0.17042564099E+01 0.17588482638E+01 0.18083771967E+01 0.18501207515E+01
 0.18817460199E+01 0.19014676229E+01 0.19081665379E+01 0.19014627875E+01 0.18817394294E+01
 0.18501173606E+01 0.18083818443E+01 0.17588635637E+01 0.17042811854E+01 0.16475585610E+01
 0.15916350595E+01 0.15392906013E+01 0.14930030793E+01 0.14548496035E+01 0.14264521389E+01
 0.14089597384E+01 0.14030538300E+01 0.14089597384E+01 0.14264521389E+01 0.14548496035E+01
 0.14930030793E+01 0.15392906013E+01 0.15916350595E+01 0.16475585610E+01 0.17042811854E+01
 0.17588635637E+01 0.18083818443E+01 0.18501173606E+01 0.18817394294E+01 0.19014627875E+01